============================== echo of input deck ==============================
echo
memory 1000 mb
geometry noautosym noautoz
O 2.19756413 2.30645657 2.12398648
H 1.30374396 2.67852998 2.14887738
H 2.77602649 2.98882961 2.48710012
O -0.44664225 3.18157983 -0.553412318
H -0.294790566 4.09050608 -0.841292858
H 0.405002892 2.72651124 -0.635274589
end
basis spherical noprint
 * library cc-pvdz
end
task scf gradient
geometry noautosym noautoz
O 2.19756413 2.30645657 2.12398648
H 1.30374396 2.67852998 2.14887738
H 2.77602649 2.98882961 2.48710012
O -0.44664225 3.18157983 -0.553412318
H -0.294790566 4.09050608 -0.841292858
H 0.405002892 2.72651124 -0.635274589
end
basis spherical noprint
 * library cc-pvdz
end
task mp2 gradient
task ccsd gradient
================================================================================

         Total SCF energy =   -152.055257147910

 Output coordinates in angstroms (scale by  1.889725989 to convert to a.u.)

  No.       Tag          Charge          X              Y              Z
 ---- ---------------- ---------- -------------- -------------- --------------
    1 O                    8.0000     1.28769624    -0.51297684     1.33778631
    2 H                    1.0000     0.39387607    -0.14090343     1.36267721
    3 H                    1.0000     1.86615860     0.16939620     1.70089995
    4 O                    8.0000    -1.35651014     0.36214642    -1.33961249
    5 H                    1.0000    -1.20465846     1.27107267    -1.62749303
    6 H                    1.0000    -0.50486500    -0.09292217    -1.42147476

         Total SCF energy =   -152.055257147910
          Total MP2 energy          -152.464882694151
         Total SCF energy =   -152.055257147910
 Total MP2 energy:           -152.464882694146667
         Total SCF energy =   -152.055184284003
 Total MP2 energy:           -152.464837831725532
         Total SCF energy =   -152.055313777291
 Total MP2 energy:           -152.464912835668628
         Total SCF energy =   -152.055068145752
 Total MP2 energy:           -152.464879580529640
         Total SCF energy =   -152.055430245225
 Total MP2 energy:           -152.464871478425891
         Total SCF energy =   -152.055295480729
 Total MP2 energy:           -152.464873916039409
         Total SCF energy =   -152.055210808309
 Total MP2 energy:           -152.464885627647732
         Total SCF energy =   -152.055046762491
 Total MP2 energy:           -152.464817198908662
         Total SCF energy =   -152.055377183034
 Total MP2 energy:           -152.464858386871612
         Total SCF energy =   -152.055402721462
 Total MP2 energy:           -152.464781386614959
         Total SCF energy =   -152.055071956442
 Total MP2 energy:           -152.464948258317122
         Total SCF energy =   -152.055032866633
 Total MP2 energy:           -152.464789457849605
         Total SCF energy =   -152.055424467145
 Total MP2 energy:           -152.464919537597297
         Total SCF energy =   -152.055425610632
 Total MP2 energy:           -152.464873896632582
         Total SCF energy =   -152.055031133561
 Total MP2 energy:           -152.464834714684088
         Total SCF energy =   -152.054982720726
 Total MP2 energy:           -152.464774782525183
         Total SCF energy =   -152.055428488160
 Total MP2 energy:           -152.464887582808331
         Total SCF energy =   -152.055027674345
 Total MP2 energy:           -152.464908794925520
         Total SCF energy =   -152.055437375697
 Total MP2 energy:           -152.464811302919259
         Total SCF energy =   -152.055217011169
 Total MP2 energy:           -152.464915378445568
         Total SCF energy =   -152.055289294524

 Vector   17  Occ=0.000000D+00  E= 8.298930D-01

 Vector   18  Occ=0.000000D+00  E= 8.567892D-01

 Vector   19  Occ=0.000000D+00  E= 1.157164D+00

 Vector   20  Occ=0.000000D+00  E= 1.162939D+00

 Total MP2 energy:           -152.464844989272223
         Total SCF energy =   -152.055049875518

 Vector    2  Occ=2.000000D+00  E=-2.055436D+01

 Vector    3  Occ=2.000000D+00  E=-1.333701D+00

 Vector    4  Occ=2.000000D+00  E=-1.332319D+00

 Vector    5  Occ=2.000000D+00  E=-7.008874D-01

 Vector    6  Occ=2.000000D+00  E=-6.975589D-01

 Vector    7  Occ=2.000000D+00  E=-5.652972D-01

 Vector    8  Occ=2.000000D+00  E=-5.637815D-01

 Vector    9  Occ=2.000000D+00  E=-4.962060D-01

 Vector   10  Occ=2.000000D+00  E=-4.933861D-01

 Vector   11  Occ=0.000000D+00  E= 1.619573D-01

 Vector   12  Occ=0.000000D+00  E= 2.048589D-01

 Vector   13  Occ=0.000000D+00  E= 2.563602D-01

 Vector   14  Occ=0.000000D+00  E= 2.745336D-01

 Vector   15  Occ=0.000000D+00  E= 7.773323D-01

 Vector   16  Occ=0.000000D+00  E= 7.966884D-01

 Vector   17  Occ=0.000000D+00  E= 8.285342D-01

 Vector   18  Occ=0.000000D+00  E= 8.556159D-01

 Vector   19  Occ=0.000000D+00  E= 1.157297D+00

 Vector   20  Occ=0.000000D+00  E= 1.163084D+00

 Total MP2 energy:           -152.464772240458643
         Total SCF energy =   -152.055434887932

 Vector    2  Occ=2.000000D+00  E=-2.055436D+01

 Vector    3  Occ=2.000000D+00  E=-1.334785D+00

 Vector    4  Occ=2.000000D+00  E=-1.333411D+00

 Vector    5  Occ=2.000000D+00  E=-7.014639D-01

 Vector    6  Occ=2.000000D+00  E=-6.978466D-01

 Vector    7  Occ=2.000000D+00  E=-5.656716D-01

 Vector    8  Occ=2.000000D+00  E=-5.651995D-01

 Vector    9  Occ=2.000000D+00  E=-4.964475D-01

 Vector   10  Occ=2.000000D+00  E=-4.936049D-01

 Vector   11  Occ=0.000000D+00  E= 1.621909D-01

 Vector   12  Occ=0.000000D+00  E= 2.049802D-01

 Vector   13  Occ=0.000000D+00  E= 2.566858D-01

 Vector   14  Occ=0.000000D+00  E= 2.750919D-01

 Vector   15  Occ=0.000000D+00  E= 7.780954D-01

 Vector   16  Occ=0.000000D+00  E= 7.964189D-01

 Vector   17  Occ=0.000000D+00  E= 8.310194D-01

 Vector   18  Occ=0.000000D+00  E= 8.588243D-01

 Vector   19  Occ=0.000000D+00  E= 1.157246D+00

 Vector   20  Occ=0.000000D+00  E= 1.163177D+00

 Total MP2 energy:           -152.464964861738963
         Total SCF energy =   -152.055154687712

 Vector    2  Occ=2.000000D+00  E=-2.055466D+01

 Vector    3  Occ=2.000000D+00  E=-1.333727D+00

 Vector    4  Occ=2.000000D+00  E=-1.332766D+00

 Vector    5  Occ=2.000000D+00  E=-7.010749D-01

 Vector    6  Occ=2.000000D+00  E=-6.972194D-01

 Vector    7  Occ=2.000000D+00  E=-5.651130D-01

 Vector    8  Occ=2.000000D+00  E=-5.645949D-01

 Vector    9  Occ=2.000000D+00  E=-4.962741D-01

 Vector   10  Occ=2.000000D+00  E=-4.934596D-01

 Vector   11  Occ=0.000000D+00  E= 1.619929D-01

 Vector   12  Occ=0.000000D+00  E= 2.047567D-01

 Vector   13  Occ=0.000000D+00  E= 2.565046D-01

 Vector   14  Occ=0.000000D+00  E= 2.748128D-01

 Vector   15  Occ=0.000000D+00  E= 7.773193D-01

 Vector   16  Occ=0.000000D+00  E= 7.962802D-01

 Vector   17  Occ=0.000000D+00  E= 8.291040D-01

 Vector   18  Occ=0.000000D+00  E= 8.566558D-01

 Vector   19  Occ=0.000000D+00  E= 1.157270D+00

 Vector   20  Occ=0.000000D+00  E= 1.163174D+00

 Total MP2 energy:           -152.464863393027002
         Total SCF energy =   -152.055348123598

 Vector    2  Occ=2.000000D+00  E=-2.055406D+01

 Vector    3  Occ=2.000000D+00  E=-1.334337D+00

 Vector    4  Occ=2.000000D+00  E=-1.333375D+00

 Vector    5  Occ=2.000000D+00  E=-7.013626D-01

 Vector    6  Occ=2.000000D+00  E=-6.981039D-01

 Vector    7  Occ=2.000000D+00  E=-5.654238D-01

 Vector    8  Occ=2.000000D+00  E=-5.648148D-01

 Vector    9  Occ=2.000000D+00  E=-4.963668D-01

 Vector   10  Occ=2.000000D+00  E=-4.935442D-01

 Vector   11  Occ=0.000000D+00  E= 1.621565D-01

 Vector   12  Occ=0.000000D+00  E= 2.050836D-01

 Vector   13  Occ=0.000000D+00  E= 2.565457D-01

 Vector   14  Occ=0.000000D+00  E= 2.748084D-01

 Vector   15  Occ=0.000000D+00  E= 7.780879D-01

 Vector   16  Occ=0.000000D+00  E= 7.968711D-01

 Vector   17  Occ=0.000000D+00  E= 8.305701D-01

 Vector   18  Occ=0.000000D+00  E= 8.576083D-01

 Vector   19  Occ=0.000000D+00  E= 1.157269D+00

 Vector   20  Occ=0.000000D+00  E= 1.163085D+00

       Multipole analysis of the density wrt the origin
       ------------------------------------------------

     L   x y z        total         open         nuclear
     -   - - -        -----         ----         -------
     0   0 0 0      0.000000      0.000000     20.000000

     1   1 0 0      0.472185      0.000000      0.003708
     1   0 1 0      1.039472      0.000000      0.003290
     1   0 0 1      0.001603      0.000000      0.036708

     2   2 0 0    -11.678005      0.000000    119.004695
     2   1 1 0      1.316158      0.000000    -37.284372
     2   1 0 1     -0.829330      0.000000    123.979995
     2   0 2 0     -8.482284      0.000000     17.250967
     2   0 1 1      0.663283      0.000000    -40.083593

 Total MP2 energy:           -152.464891955438588
 Total times  cpu:      154.4s     wall:      156.3s
